 Gaussian 09, Revision C.01,
 Gaussian 09:  EM64L-G09RevC.01 23-Sep-2011

 --------------------------------------------
 #p opt scf=verytight b3lyp/6-31g* Field=x+32
 --------------------------------------------

 (Enter /apps/gaussian/g09_c01/g09/l101.exe)
 ---------------------------------------------------------
 Ain't no field like an E-field, with a bit of relaxation.
 ---------------------------------------------------------
 Charge =  0 Multiplicity = 1

 SCF Done:  E(RB3LYP) =  -2286.17658188     A.U. after   16 cycles
 SCF Done:  E(RB3LYP) =  -2286.17640406     A.U. after   15 cycles
 SCF Done:  E(RB3LYP) =  -2286.17667183     A.U. after   14 cycles
 SCF Done:  E(RB3LYP) =  -2286.17666071     A.U. after   17 cycles
 SCF Done:  E(RB3LYP) =  -2286.17641225     A.U. after   17 cycles
 SCF Done:  E(RB3LYP) =  -2286.17660803     A.U. after   15 cycles
 Optimization completed.
    -- Stationary point found.

                         Standard orientation:
 ---------------------------------------------------------------------
 Center     Atomic      Atomic             Coordinates (Angstroms)
 Number     Number       Type             X           Y           Z
 ---------------------------------------------------------------------
      1          6           0       -2.256206    2.192543    1.646422
      2          6           0       -3.135752    1.289741    1.048465
      3          6           0       -3.289525    1.272829   -0.396577
      4          6           0       -2.556899    2.159027   -1.186572
      5          6           0       -1.638821    3.097844   -0.563945
      6          6           0       -1.491760    3.114590    0.823477
      7          6           0       -0.169597    3.251238    1.411616
      8          6           0       -0.117125    2.413872    2.598325
      9          6           0       -1.406611    1.759548    2.743215
     10          6           0       -1.472028    0.442523    3.198681
     11          6           0       -2.389954   -0.496948    2.577292
     12          6           0       -3.204277   -0.081914    1.523541
     13          6           0       -3.401158   -0.946767    0.372372
     14          6           0       -3.453407   -0.109491   -0.814486
     15          6           0       -2.877192   -0.550865   -2.005699
     16          6           0       -2.112594    0.371776   -2.827781
     17          6           0       -1.955835    1.698919   -2.427070
     18          6           0       -0.666031    2.353182   -2.571249
     19          6           0       -0.469986    3.217675   -1.419533
     20          6           0        0.799154    3.352281   -0.854928
     21          6           0        0.952443    3.369242    0.590125
     22          6           0        2.172997    2.652617    0.920825
     23          6           0        2.223016    1.847977    2.060303
     24          6           0        1.055315    1.727262    2.917314
     25          6           0        0.986770    0.355473    3.391956
     26          6           0       -0.251280   -0.273562    3.528404
     27          6           0       -0.415100   -1.656039    3.110977
     28          6           0       -1.737355   -1.794225    2.523495
     29          6           0       -1.924999   -2.623779    1.417525
     30          6           0       -2.774562   -2.192106    0.320365
     31          6           0       -2.173424   -2.651596   -0.920601
     32          6           0       -2.223616   -1.847626   -2.059559
     33          6           0       -1.055066   -1.726847   -2.915234
     34          6           0       -0.986216   -0.354796   -3.389536
     35          6           0        0.251279    0.274186   -3.531079
     36          6           0        0.414839    1.656436   -3.113014
     37          6           0        1.736423    1.794436   -2.523763
     38          6           0        1.924856    2.625277   -1.417887
     39          6           0        2.774204    2.192441   -0.320334
     40          6           0        3.402665    0.946745   -0.372531
     41          6           0        3.454997    0.109213    0.814555
     42          6           0        2.876671    0.550755    2.005957
     43          6           0        2.112412   -0.371697    2.829351
     44          6           0        1.954677   -1.698947    2.427303
     45          6           0        0.665795   -2.354777    2.572167
     46          6           0        0.470022   -3.219726    1.420989
     47          6           0       -0.798698   -3.349665    0.854848
     48          6           0       -0.952112   -3.366998   -0.590264
     49          6           0        0.169282   -3.253083   -1.412862
     50          6           0        0.116731   -2.415738   -2.599418
     51          6           0        1.405583   -1.759725   -2.743470
     52          6           0        1.471516   -0.442524   -3.200153
     53          6           0        2.389171    0.496764   -2.577077
     54          6           0        3.206358    0.081633   -1.524149
     55          6           0        3.138348   -1.290507   -1.048962
     56          6           0        2.255145   -2.191948   -1.645810
     57          6           0        1.490754   -3.115129   -0.823490
     58          6           0        1.638134   -3.098930    0.564372
     59          6           0        2.555844   -2.158619    1.186288
     60          6           0        3.291782   -1.273470    0.396511
 ---------------------------------------------------------------------

 The electronic state is 1-A.
 Alpha  occ. eigenvalues --  -10.23526 -10.23504 -10.23490 -10.23475 -10.23462
 Alpha  occ. eigenvalues --  -10.23454 -10.23444 -10.23427 -10.23413 -10.23397
 Alpha  occ. eigenvalues --  -10.23393 -10.23372 -10.23354 -10.23341 -10.23325
 Alpha  occ. eigenvalues --  -10.23319 -10.23306 -10.23300 -10.23272 -10.23253
 Alpha  occ. eigenvalues --  -10.23206 -10.23195 -10.23179 -10.23163 -10.23160
 Alpha  occ. eigenvalues --  -10.23144 -10.23135 -10.23130 -10.23122 -10.23118
 Alpha  occ. eigenvalues --  -10.23111 -10.23106 -10.23097 -10.23092 -10.23085
 Alpha  occ. eigenvalues --  -10.23068 -10.23065 -10.23047 -10.23036 -10.23022
 Alpha  occ. eigenvalues --  -10.22973 -10.22964 -10.22933 -10.22919 -10.22912
 Alpha  occ. eigenvalues --  -10.22908 -10.22894 -10.22881 -10.22856 -10.22841
 Alpha  occ. eigenvalues --  -10.22839 -10.22818 -10.22810 -10.22794 -10.22780
 Alpha  occ. eigenvalues --  -10.22777 -10.22760 -10.22748 -10.22734 -10.22714
 Alpha  occ. eigenvalues --   -0.96828  -0.94842  -0.94839  -0.94816  -0.91057
 Alpha  occ. eigenvalues --   -0.91056  -0.91051  -0.91049  -0.91046  -0.87070
 Alpha  occ. eigenvalues --   -0.87068  -0.87062  -0.83898  -0.83897  -0.83896
 Alpha  occ. eigenvalues --   -0.83895  -0.78853  -0.78852  -0.78849  -0.78848
 Alpha  occ. eigenvalues --   -0.78848  -0.77178  -0.77178  -0.77175  -0.77175
 Alpha  occ. eigenvalues --   -0.71566  -0.71564  -0.71564  -0.71563  -0.71562
 Alpha  occ. eigenvalues --   -0.70149  -0.70148  -0.70146  -0.65870  -0.65864
 Alpha  occ. eigenvalues --   -0.65862  -0.62235  -0.62234  -0.62234  -0.62231
 Alpha  occ. eigenvalues --   -0.62225  -0.61938  -0.61937  -0.61936  -0.59345
 Alpha  occ. eigenvalues --   -0.55233  -0.55233  -0.55229  -0.55227  -0.52884
 Alpha  occ. eigenvalues --   -0.52881  -0.52880  -0.52877  -0.52875  -0.51243
 Alpha  occ. eigenvalues --   -0.51242  -0.51241  -0.48706  -0.48705  -0.48704
 Alpha  occ. eigenvalues --   -0.47960  -0.46196  -0.46195  -0.46194  -0.46192
 Alpha  occ. eigenvalues --   -0.45612  -0.45610  -0.45572  -0.44267  -0.44266
 Alpha  occ. eigenvalues --   -0.44264  -0.44264  -0.44261  -0.42966  -0.42965
 Alpha  occ. eigenvalues --   -0.42962  -0.42960  -0.41816  -0.41810  -0.41808
 Alpha  occ. eigenvalues --   -0.41148  -0.41147  -0.41138  -0.41136  -0.41135
 Alpha  occ. eigenvalues --   -0.39927  -0.39925  -0.39924  -0.39922  -0.35822
 Alpha  occ. eigenvalues --   -0.35818  -0.35781  -0.35776  -0.35772  -0.35687
 Alpha  occ. eigenvalues --   -0.35683  -0.35667  -0.34621  -0.34608  -0.34607
 Alpha  occ. eigenvalues --   -0.34569  -0.34568  -0.33750  -0.33749  -0.33748
 Alpha  occ. eigenvalues --   -0.33747  -0.27009  -0.27006  -0.26997  -0.26995
 Alpha  occ. eigenvalues --   -0.26994  -0.26884  -0.26882  -0.26872  -0.26869
 Alpha  occ. eigenvalues --   -0.22002  -0.21990  -0.21989  -0.21987  -0.21986
 Alpha virt. eigenvalues --   -0.11876  -0.11873  -0.11853  -0.07522  -0.07504
 Alpha virt. eigenvalues --   -0.07499  -0.03755  -0.03657  -0.03617  -0.03095
 Alpha virt. eigenvalues --   -0.03090  -0.03034  -0.02993  -0.02867   0.02888

 Mulliken atomic charges:
              1
     1  C    0.006085
     2  C    0.009486
     3  C    0.009399
     4  C    0.007133
     5  C    0.004707
     6  C    0.003897
     7  C    0.000984
     8  C    0.000714
     9  C    0.003929
    10  C    0.004252
    11  C    0.006667
    12  C    0.009268
    13  C    0.009694
    14  C    0.009993
    15  C    0.008190
    16  C    0.006230
    17  C    0.005339
    18  C    0.002294
    19  C    0.001869
    20  C   -0.002621
    21  C   -0.003080
    22  C   -0.006308
    23  C   -0.006321
    24  C   -0.003404
    25  C   -0.003171
    26  C    0.001239
    27  C    0.001484
    28  C    0.004688
    29  C    0.005693
    30  C    0.007708
    31  C    0.006121
    32  C    0.006208
    33  C    0.003301
    34  C    0.003371
    35  C   -0.001181
    36  C   -0.001467
    37  C   -0.004905
    38  C   -0.005576
    39  C   -0.007844
    40  C   -0.009917
    41  C   -0.009915
    42  C   -0.007908
    43  C   -0.006180
    44  C   -0.005391
    45  C   -0.002092
    46  C   -0.001766
    47  C    0.002844
    48  C    0.003065
    49  C   -0.000770
    50  C   -0.000700
    51  C   -0.003818
    52  C   -0.004433
    53  C   -0.006359
    54  C   -0.009509
    55  C   -0.009213
    56  C   -0.005969
    57  C   -0.004452
    58  C   -0.004821
    59  C   -0.006784
    60  C   -0.009981
 Sum of Mulliken atomic charges =   0.00000

 Dipole moment (field-independent basis, Debye):
    X=             -3.8392    Y=             -0.0038    Z=              0.0009  Tot=              3.8392
 Quadrupole moment (field-independent basis, Debye-Ang):
   XX=           -324.1415   YY=           -324.1182   ZZ=           -324.1158
   XY=             -0.0015   XZ=              0.0026   YZ=             -0.0021

 Normal termination of Gaussian 09 at Fri Nov  4 09:56:05 2016.
